+ 2.10824 /NodeList/1/DeviceList/1/$ns3::PointToPointNetDevice/TxQueue/Enqueue ns3::PppHeader (Point-to-Point Protocol: IP (0x0021)) ns3::Ipv4Header (tos 0x0 DSCP Default ECN Not-ECT ttl 64 id 0 protocol 17 offset (bytes) 0 flags [none] length: 540 10.0.0.2 > 10.0.0.10) ns3::UdpHeader (length: 520 49153 > 9) Payload (size=512)
- 2.10824 /NodeList/1/DeviceList/1/$ns3::PointToPointNetDevice/TxQueue/Dequeue ns3::PppHeader (Point-to-Point Protocol: IP (0x0021)) ns3::Ipv4Header (tos 0x0 DSCP Default ECN Not-ECT ttl 64 id 0 protocol 17 offset (bytes) 0 flags [none] length: 540 10.0.0.2 > 10.0.0.10) ns3::UdpHeader (length: 520 49153 > 9) Payload (size=512)
+ 2.10969 /NodeList/4/DeviceList/1/$ns3::PointToPointNetDevice/TxQueue/Enqueue ns3::PppHeader (Point-to-Point Protocol: IP (0x0021)) ns3::Ipv4Header (tos 0x0 DSCP Default ECN Not-ECT ttl 64 id 0 protocol 17 offset (bytes) 0 flags [none] length: 540 10.0.0.10 > 10.0.0.6) ns3::UdpHeader (length: 520 49153 > 9) Payload (size=512)
- 2.10969 /NodeList/4/DeviceList/1/$ns3::PointToPointNetDevice/TxQueue/Dequeue ns3::PppHeader (Point-to-Point Protocol: IP (0x0021)) ns3::Ipv4Header (tos 0x0 DSCP Default ECN Not-ECT ttl 64 id 0 protocol 17 offset (bytes) 0 flags [none] length: 540 10.0.0.10 > 10.0.0.6) ns3::UdpHeader (length: 520 49153 > 9) Payload (size=512)
r 2.11067 /NodeList/0/DeviceList/1/$ns3::PointToPointNetDevice/MacRx ns3::PppHeader (Point-to-Point Protocol: IP (0x0021)) ns3::Ipv4Header (tos 0x0 DSCP Default ECN Not-ECT ttl 64 id 0 protocol 17 offset (bytes) 0 flags [none] length: 540 10.0.0.2 > 10.0.0.10) ns3::UdpHeader (length: 520 49153 > 9) Payload (size=512)
+ 2.11067 /NodeList/0/DeviceList/3/$ns3::PointToPointNetDevice/TxQueue/Enqueue ns3::PppHeader (Point-to-Point Protocol: IP (0x0021)) ns3::Ipv4Header (tos 0x0 DSCP Default ECN Not-ECT ttl 63 id 0 protocol 17 offset (bytes) 0 flags [none] length: 540 10.0.0.2 > 10.0.0.10) ns3::UdpHeader (length: 520 49153 > 9) Payload (size=512)
- 2.11067 /NodeList/0/DeviceList/3/$ns3::PointToPointNetDevice/TxQueue/Dequeue ns3::PppHeader (Point-to-Point Protocol: IP (0x0021)) ns3::Ipv4Header (tos 0x0 DSCP Default ECN Not-ECT ttl 63 id 0 protocol 17 offset (bytes) 0 flags [none] length: 540 10.0.0.2 > 10.0.0.10) ns3::UdpHeader (length: 520 49153 > 9) Payload (size=512)
r 2.11212 /NodeList/0/DeviceList/3/$ns3::PointToPointNetDevice/MacRx ns3::PppHeader (Point-to-Point Protocol: IP (0x0021)) ns3::Ipv4Header (tos 0x0 DSCP Default ECN Not-ECT ttl 64 id 0 protocol 17 offset (bytes) 0 flags [none] length: 540 10.0.0.10 > 10.0.0.6) ns3::UdpHeader (length: 520 49153 > 9) Payload (size=512)
+ 2.11212 /NodeList/0/DeviceList/2/$ns3::PointToPointNetDevice/TxQueue/Enqueue ns3::PppHeader (Point-to-Point Protocol: IP (0x0021)) ns3::Ipv4Header (tos 0x0 DSCP Default ECN Not-ECT ttl 63 id 0 protocol 17 offset (bytes) 0 flags [none] length: 540 10.0.0.10 > 10.0.0.6) ns3::UdpHeader (length: 520 49153 > 9) Payload (size=512)
- 2.11212 /NodeList/0/DeviceList/2/$ns3::PointToPointNetDevice/TxQueue/Dequeue ns3::PppHeader (Point-to-Point Protocol: IP (0x0021)) ns3::Ipv4Header (tos 0x0 DSCP Default ECN Not-ECT ttl 63 id 0 protocol 17 offset (bytes) 0 flags [none] length: 540 10.0.0.10 > 10.0.0.6) ns3::UdpHeader (length: 520 49153 > 9) Payload (size=512)
+ 2.11267 /NodeList/7/DeviceList/2/$ns3::PointToPointNetDevice/TxQueue/Enqueue ns3::PppHeader (Point-to-Point Protocol: IP (0x0021)) ns3::Ipv4Header (tos 0x0 DSCP Default ECN Not-ECT ttl 64 id 0 protocol 17 offset (bytes) 0 flags [none] length: 540 10.0.0.90 > 10.0.0.78) ns3::UdpHeader (length: 520 49153 > 9) Payload (size=512)
- 2.11267 /NodeList/7/DeviceList/2/$ns3::PointToPointNetDevice/TxQueue/Dequeue ns3::PppHeader (Point-to-Point Protocol: IP (0x0021)) ns3::Ipv4Header (tos 0x0 DSCP Default ECN Not-ECT ttl 64 id 0 protocol 17 offset (bytes) 0 flags [none] length: 540 10.0.0.90 > 10.0.0.78) ns3::UdpHeader (length: 520 49153 > 9) Payload (size=512)
+ 2.11276 /NodeList/6/DeviceList/2/$ns3::PointToPointNetDevice/TxQueue/Enqueue ns3::PppHeader (Point-to-Point Protocol: IP (0x0021)) ns3::Ipv4Header (tos 0x0 DSCP Default ECN Not-ECT ttl 64 id 0 protocol 17 offset (bytes) 0 flags [none] length: 540 10.0.0.74 > 10.0.0.26) ns3::UdpHeader (length: 520 49153 > 9) Payload (size=512)
- 2.11276 /NodeList/6/DeviceList/2/$ns3::PointToPointNetDevice/TxQueue/Dequeue ns3::PppHeader (Point-to-Point Protocol: IP (0x0021)) ns3::Ipv4Header (tos 0x0 DSCP Default ECN Not-ECT ttl 64 id 0 protocol 17 offset (bytes) 0 flags [none] length: 540 10.0.0.74 > 10.0.0.26) ns3::UdpHeader (length: 520 49153 > 9) Payload (size=512)
r 2.11311 /NodeList/4/DeviceList/1/$ns3::PointToPointNetDevice/MacRx ns3::PppHeader (Point-to-Point Protocol: IP (0x0021)) ns3::Ipv4Header (tos 0x0 DSCP Default ECN Not-ECT ttl 63 id 0 protocol 17 offset (bytes) 0 flags [none] length: 540 10.0.0.2 > 10.0.0.10) ns3::UdpHeader (length: 520 49153 > 9) Payload (size=512)
+ 2.11346 /NodeList/0/DeviceList/1/$ns3::PointToPointNetDevice/TxQueue/Enqueue ns3::PppHeader (Point-to-Point Protocol: IP (0x0021)) ns3::Ipv4Header (tos 0x0 DSCP Default ECN Not-ECT ttl 64 id 0 protocol 17 offset (bytes) 0 flags [none] length: 540 10.0.0.1 > 10.0.0.62) ns3::UdpHeader (length: 520 49153 > 9) Payload (size=512)
- 2.11346 /NodeList/0/DeviceList/1/$ns3::PointToPointNetDevice/TxQueue/Dequeue ns3::PppHeader (Point-to-Point Protocol: IP (0x0021)) ns3::Ipv4Header (tos 0x0 DSCP Default ECN Not-ECT ttl 64 id 0 protocol 17 offset (bytes) 0 flags [none] length: 540 10.0.0.1 > 10.0.0.62) ns3::UdpHeader (length: 520 49153 > 9) Payload (size=512)
r 2.11456 /NodeList/2/DeviceList/1/$ns3::PointToPointNetDevice/MacRx ns3::PppHeader (Point-to-Point Protocol: IP (0x0021)) ns3::Ipv4Header (tos 0x0 DSCP Default ECN Not-ECT ttl 63 id 0 protocol 17 offset (bytes) 0 flags [none] length: 540 10.0.0.10 > 10.0.0.6) ns3::UdpHeader (length: 520 49153 > 9) Payload (size=512)
+ 2.11459 /NodeList/11/DeviceList/1/$ns3::PointToPointNetDevice/TxQueue/Enqueue ns3::PppHeader (Point-to-Point Protocol: IP (0x0021)) ns3::Ipv4Header (tos 0x0 DSCP Default ECN Not-ECT ttl 64 id 0 protocol 17 offset (bytes) 0 flags [none] length: 540 10.0.0.62 > 10.0.0.6) ns3::UdpHeader (length: 520 49153 > 9) Payload (size=512)
- 2.11459 /NodeList/11/DeviceList/1/$ns3::PointToPointNetDevice/TxQueue/Dequeue ns3::PppHeader (Point-to-Point Protocol: IP (0x0021)) ns3::Ipv4Header (tos 0x0 DSCP Default ECN Not-ECT ttl 64 id 0 protocol 17 offset (bytes) 0 flags [none] length: 540 10.0.0.62 > 10.0.0.6) ns3::UdpHeader (length: 520 49153 > 9) Payload (size=512)
r 2.1151 /NodeList/5/DeviceList/5/$ns3::PointToPointNetDevice/MacRx ns3::PppHeader (Point-to-Point Protocol: IP (0x0021)) ns3::Ipv4Header (tos 0x0 DSCP Default ECN Not-ECT ttl 64 id 0 protocol 17 offset (bytes) 0 flags [none] length: 540 10.0.0.90 > 10.0.0.78) ns3::UdpHeader (length: 520 49153 > 9) Payload (size=512)
+ 2.1151 /NodeList/5/DeviceList/2/$ns3::PointToPointNetDevice/TxQueue/Enqueue ns3::PppHeader (Point-to-Point Protocol: IP (0x0021)) ns3::Ipv4Header (tos 0x0 DSCP Default ECN Not-ECT ttl 63 id 0 protocol 17 offset (bytes) 0 flags [none] length: 540 10.0.0.90 > 10.0.0.78) ns3::UdpHeader (length: 520 49153 > 9) Payload (size=512)
- 2.1151 /NodeList/5/DeviceList/2/$ns3::PointToPointNetDevice/TxQueue/Dequeue ns3::PppHeader (Point-to-Point Protocol: IP (0x0021)) ns3::Ipv4Header (tos 0x0 DSCP Default ECN Not-ECT ttl 63 id 0 protocol 17 offset (bytes) 0 flags [none] length: 540 10.0.0.90 > 10.0.0.78) ns3::UdpHeader (length: 520 49153 > 9) Payload (size=512)
r 2.11519 /NodeList/4/DeviceList/4/$ns3::PointToPointNetDevice/MacRx ns3::PppHeader (Point-to-Point Protocol: IP (0x0021)) ns3::Ipv4Header (tos 0x0 DSCP Default ECN Not-ECT ttl 64 id 0 protocol 17 offset (bytes) 0 flags [none] length: 540 10.0.0.74 > 10.0.0.26) ns3::UdpHeader (length: 520 49153 > 9) Payload (size=512)
+ 2.11519 /NodeList/4/DeviceList/3/$ns3::PointToPointNetDevice/TxQueue/Enqueue ns3::PppHeader (Point-to-Point Protocol: IP (0x0021)) ns3::Ipv4Header (tos 0x0 DSCP Default ECN Not-ECT ttl 63 id 0 protocol 17 offset (bytes) 0 flags [none] length: 540 10.0.0.74 > 10.0.0.26) ns3::UdpHeader (length: 520 49153 > 9) Payload (size=512)
- 2.11519 /NodeList/4/DeviceList/3/$ns3::PointToPointNetDevice/TxQueue/Dequeue ns3::PppHeader (Point-to-Point Protocol: IP (0x0021)) ns3::Ipv4Header (tos 0x0 DSCP Default ECN Not-ECT ttl 63 id 0 protocol 17 offset (bytes) 0 flags [none] length: 540 10.0.0.74 > 10.0.0.26) ns3::UdpHeader (length: 520 49153 > 9) Payload (size=512)
r 2.11589 /NodeList/1/DeviceList/1/$ns3::PointToPointNetDevice/MacRx ns3::PppHeader (Point-to-Point Protocol: IP (0x0021)) ns3::Ipv4Header (tos 0x0 DSCP Default ECN Not-ECT ttl 64 id 0 protocol 17 offset (bytes) 0 flags [none] length: 540 10.0.0.1 > 10.0.0.62) ns3::UdpHeader (length: 520 49153 > 9) Payload (size=512)
+ 2.11589 /NodeList/1/DeviceList/3/$ns3::PointToPointNetDevice/TxQueue/Enqueue ns3::PppHeader (Point-to-Point Protocol: IP (0x0021)) ns3::Ipv4Header (tos 0x0 DSCP Default ECN Not-ECT ttl 63 id 0 protocol 17 offset (bytes) 0 flags [none] length: 540 10.0.0.1 > 10.0.0.62) ns3::UdpHeader (length: 520 49153 > 9) Payload (size=512)
- 2.11589 /NodeList/1/DeviceList/3/$ns3::PointToPointNetDevice/TxQueue/Dequeue ns3::PppHeader (Point-to-Point Protocol: IP (0x0021)) ns3::Ipv4Header (tos 0x0 DSCP Default ECN Not-ECT ttl 63 id 0 protocol 17 offset (bytes) 0 flags [none] length: 540 10.0.0.1 > 10.0.0.62) ns3::UdpHeader (length: 520 49153 > 9) Payload (size=512)
+ 2.11618 /NodeList/12/DeviceList/2/$ns3::PointToPointNetDevice/TxQueue/Enqueue ns3::PppHeader (Point-to-Point Protocol: IP (0x0021)) ns3::Ipv4Header (tos 0x0 DSCP Default ECN Not-ECT ttl 64 id 0 protocol 17 offset (bytes) 0 flags [none] length: 540 10.0.0.142 > 10.0.0.14) ns3::UdpHeader (length: 520 49153 > 9) Payload (size=512)
- 2.11618 /NodeList/12/DeviceList/2/$ns3::PointToPointNetDevice/TxQueue/Dequeue ns3::PppHeader (Point-to-Point Protocol: IP (0x0021)) ns3::Ipv4Header (tos 0x0 DSCP Default ECN Not-ECT ttl 64 id 0 protocol 17 offset (bytes) 0 flags [none] length: 540 10.0.0.142 > 10.0.0.14) ns3::UdpHeader (length: 520 49153 > 9) Payload (size=512)
r 2.11702 /NodeList/3/DeviceList/6/$ns3::PointToPointNetDevice/MacRx ns3::PppHeader (Point-to-Point Protocol: IP (0x0021)) ns3::Ipv4Header (tos 0x0 DSCP Default ECN Not-ECT ttl 64 id 0 protocol 17 offset (bytes) 0 flags [none] length: 540 10.0.0.62 > 10.0.0.6) ns3::UdpHeader (length: 520 49153 > 9) Payload (size=512)
+ 2.11702 /NodeList/3/DeviceList/2/$ns3::PointToPointNetDevice/TxQueue/Enqueue ns3::PppHeader (Point-to-Point Protocol: IP (0x0021)) ns3::Ipv4Header (tos 0x0 DSCP Default ECN Not-ECT ttl 63 id 0 protocol 17 offset (bytes) 0 flags [none] length: 540 10.0.0.62 > 10.0.0.6) ns3::UdpHeader (length: 520 49153 > 9) Payload (size=512)
- 2.11702 /NodeList/3/DeviceList/2/$ns3::PointToPointNetDevice/TxQueue/Dequeue ns3::PppHeader (Point-to-Point Protocol: IP (0x0021)) ns3::Ipv4Header (tos 0x0 DSCP Default ECN Not-ECT ttl 63 id 0 protocol 17 offset (bytes) 0 flags [none] length: 540 10.0.0.62 > 10.0.0.6) ns3::UdpHeader (length: 520 49153 > 9) Payload (size=512)
r 2.11753 /NodeList/4/DeviceList/3/$ns3::PointToPointNetDevice/MacRx ns3::PppHeader (Point-to-Point Protocol: IP (0x0021)) ns3::Ipv4Header (tos 0x0 DSCP Default ECN Not-ECT ttl 63 id 0 protocol 17 offset (bytes) 0 flags [none] length: 540 10.0.0.90 > 10.0.0.78) ns3::UdpHeader (length: 520 49153 > 9) Payload (size=512)
+ 2.11753 /NodeList/4/DeviceList/5/$ns3::PointToPointNetDevice/TxQueue/Enqueue ns3::PppHeader (Point-to-Point Protocol: IP (0x0021)) ns3::Ipv4Header (tos 0x0 DSCP Default ECN Not-ECT ttl 62 id 0 protocol 17 offset (bytes) 0 flags [none] length: 540 10.0.0.90 > 10.0.0.78) ns3::UdpHeader (length: 520 49153 > 9) Payload (size=512)
- 2.11753 /NodeList/4/DeviceList/5/$ns3::PointToPointNetDevice/TxQueue/Dequeue ns3::PppHeader (Point-to-Point Protocol: IP (0x0021)) ns3::Ipv4Header (tos 0x0 DSCP Default ECN Not-ECT ttl 62 id 0 protocol 17 offset (bytes) 0 flags [none] length: 540 10.0.0.90 > 10.0.0.78) ns3::UdpHeader (length: 520 49153 > 9) Payload (size=512)
r 2.11762 /NodeList/5/DeviceList/2/$ns3::PointToPointNetDevice/MacRx ns3::PppHeader (Point-to-Point Protocol: IP (0x0021)) ns3::Ipv4Header (tos 0x0 DSCP Default ECN Not-ECT ttl 63 id 0 protocol 17 offset (bytes) 0 flags [none] length: 540 10.0.0.74 > 10.0.0.26) ns3::UdpHeader (length: 520 49153 > 9) Payload (size=512)
r 2.11833 /NodeList/3/DeviceList/1/$ns3::PointToPointNetDevice/MacRx ns3::PppHeader (Point-to-Point Protocol: IP (0x0021)) ns3::Ipv4Header (tos 0x0 DSCP Default ECN Not-ECT ttl 63 id 0 protocol 17 offset (bytes) 0 flags [none] length: 540 10.0.0.1 > 10.0.0.62) ns3::UdpHeader (length: 520 49153 > 9) Payload (size=512)
+ 2.11833 /NodeList/3/DeviceList/6/$ns3::PointToPointNetDevice/TxQueue/Enqueue ns3::PppHeader (Point-to-Point Protocol: IP (0x0021)) ns3::Ipv4Header (tos 0x0 DSCP Default ECN Not-ECT ttl 62 id 0 protocol 17 offset (bytes) 0 flags [none] length: 540 10.0.0.1 > 10.0.0.62) ns3::UdpHeader (length: 520 49153 > 9) Payload (size=512)
- 2.11833 /NodeList/3/DeviceList/6/$ns3::PointToPointNetDevice/TxQueue/Dequeue ns3::PppHeader (Point-to-Point Protocol: IP (0x0021)) ns3::Ipv4Header (tos 0x0 DSCP Default ECN Not-ECT ttl 62 id 0 protocol 17 offset (bytes) 0 flags [none] length: 540 10.0.0.1 > 10.0.0.62) ns3::UdpHeader (length: 520 49153 > 9) Payload (size=512)
r 2.11861 /NodeList/8/DeviceList/5/$ns3::PointToPointNetDevice/MacRx ns3::PppHeader (Point-to-Point Protocol: IP (0x0021)) ns3::Ipv4Header (tos 0x0 DSCP Default ECN Not-ECT ttl 64 id 0 protocol 17 offset (bytes) 0 flags [none] length: 540 10.0.0.142 > 10.0.0.14) ns3::UdpHeader (length: 520 49153 > 9) Payload (size=512)
r 2.11945 /NodeList/2/DeviceList/3/$ns3::PointToPointNetDevice/MacRx ns3::PppHeader (Point-to-Point Protocol: IP (0x0021)) ns3::Ipv4Header (tos 0x0 DSCP Default ECN Not-ECT ttl 63 id 0 protocol 17 offset (bytes) 0 flags [none] length: 540 10.0.0.62 > 10.0.0.6) ns3::UdpHeader (length: 520 49153 > 9) Payload (size=512)
r 2.11997 /NodeList/12/DeviceList/1/$ns3::PointToPointNetDevice/MacRx ns3::PppHeader (Point-to-Point Protocol: IP (0x0021)) ns3::Ipv4Header (tos 0x0 DSCP Default ECN Not-ECT ttl 62 id 0 protocol 17 offset (bytes) 0 flags [none] length: 540 10.0.0.90 > 10.0.0.78) ns3::UdpHeader (length: 520 49153 > 9) Payload (size=512)
r 2.12076 /NodeList/11/DeviceList/1/$ns3::PointToPointNetDevice/MacRx ns3::PppHeader (Point-to-Point Protocol: IP (0x0021)) ns3::Ipv4Header (tos 0x0 DSCP Default ECN Not-ECT ttl 62 id 0 protocol 17 offset (bytes) 0 flags [none] length: 540 10.0.0.1 > 10.0.0.62) ns3::UdpHeader (length: 520 49153 > 9) Payload (size=512)
+ 2.12208 /NodeList/10/DeviceList/5/$ns3::PointToPointNetDevice/TxQueue/Enqueue ns3::PppHeader (Point-to-Point Protocol: IP (0x0021)) ns3::Ipv4Header (tos 0x0 DSCP Default ECN Not-ECT ttl 64 id 0 protocol 17 offset (bytes) 0 flags [none] length: 540 10.0.0.169 > 10.0.0.62) ns3::UdpHeader (length: 520 49153 > 9) Payload (size=512)
- 2.12208 /NodeList/10/DeviceList/5/$ns3::PointToPointNetDevice/TxQueue/Dequeue ns3::PppHeader (Point-to-Point Protocol: IP (0x0021)) ns3::Ipv4Header (tos 0x0 DSCP Default ECN Not-ECT ttl 64 id 0 protocol 17 offset (bytes) 0 flags [none] length: 540 10.0.0.169 > 10.0.0.62) ns3::UdpHeader (length: 520 49153 > 9) Payload (size=512)
+ 2.12361 /NodeList/14/DeviceList/7/$ns3::PointToPointNetDevice/TxQueue/Enqueue ns3::PppHeader (Point-to-Point Protocol: IP (0x0021)) ns3::Ipv4Header (tos 0x0 DSCP Default ECN Not-ECT ttl 64 id 0 protocol 17 offset (bytes) 0 flags [none] length: 540 10.0.0.237 > 10.0.0.126) ns3::UdpHeader (length: 520 49153 > 9) Payload (size=512)
- 2.12361 /NodeList/14/DeviceList/7/$ns3::PointToPointNetDevice/TxQueue/Dequeue ns3::PppHeader (Point-to-Point Protocol: IP (0x0021)) ns3::Ipv4Header (tos 0x0 DSCP Default ECN Not-ECT ttl 64 id 0 protocol 17 offset (bytes) 0 flags [none] length: 540 10.0.0.237 > 10.0.0.126) ns3::UdpHeader (length: 520 49153 > 9) Payload (size=512)
+ 2.12364 /NodeList/2/DeviceList/3/$ns3::PointToPointNetDevice/TxQueue/Enqueue ns3::PppHeader (Point-to-Point Protocol: IP (0x0021)) ns3::Ipv4Header (tos 0x0 DSCP Default ECN Not-ECT ttl 64 id 0 protocol 17 offset (bytes) 0 flags [none] length: 540 10.0.0.37 > 10.0.0.62) ns3::UdpHeader (length: 520 49153 > 9) Payload (size=512)
- 2.12364 /NodeList/2/DeviceList/3/$ns3::PointToPointNetDevice/TxQueue/Dequeue ns3::PppHeader (Point-to-Point Protocol: IP (0x0021)) ns3::Ipv4Header (tos 0x0 DSCP Default ECN Not-ECT ttl 64 id 0 protocol 17 offset (bytes) 0 flags [none] length: 540 10.0.0.37 > 10.0.0.62) ns3::UdpHeader (length: 520 49153 > 9) Payload (size=512)
r 2.12452 /NodeList/11/DeviceList/3/$ns3::PointToPointNetDevice/MacRx ns3::PppHeader (Point-to-Point Protocol: IP (0x0021)) ns3::Ipv4Header (tos 0x0 DSCP Default ECN Not-ECT ttl 64 id 0 protocol 17 offset (bytes) 0 flags [none] length: 540 10.0.0.169 > 10.0.0.62) ns3::UdpHeader (length: 520 49153 > 9) Payload (size=512)
+ 2.12474 /NodeList/15/DeviceList/1/$ns3::PointToPointNetDevice/TxQueue/Enqueue ns3::PppHeader (Point-to-Point Protocol: IP (0x0021)) ns3::Ipv4Header (tos 0x0 DSCP Default ECN Not-ECT ttl 64 id 0 protocol 17 offset (bytes) 0 flags [none] length: 540 10.0.0.126 > 10.0.0.2) ns3::UdpHeader (length: 520 49153 > 9) Payload (size=512)
- 2.12474 /NodeList/15/DeviceList/1/$ns3::PointToPointNetDevice/TxQueue/Dequeue ns3::PppHeader (Point-to-Point Protocol: IP (0x0021)) ns3::Ipv4Header (tos 0x0 DSCP Default ECN Not-ECT ttl 64 id 0 protocol 17 offset (bytes) 0 flags [none] length: 540 10.0.0.126 > 10.0.0.2) ns3::UdpHeader (length: 520 49153 > 9) Payload (size=512)
+ 2.12604 /NodeList/14/DeviceList/1/$ns3::PointToPointNetDevice/TxQueue/Enqueue ns3::PppHeader (Point-to-Point Protocol: IP (0x0021)) ns3::Ipv4Header (tos 0x0 DSCP Default ECN Not-ECT ttl 64 id 0 protocol 17 offset (bytes) 0 flags [none] length: 540 10.0.0.110 > 10.0.0.10) ns3::UdpHeader (length: 520 49154 > 9) Payload (size=512)
- 2.12604 /NodeList/14/DeviceList/1/$ns3::PointToPointNetDevice/TxQueue/Dequeue ns3::PppHeader (Point-to-Point Protocol: IP (0x0021)) ns3::Ipv4Header (tos 0x0 DSCP Default ECN Not-ECT ttl 64 id 0 protocol 17 offset (bytes) 0 flags [none] length: 540 10.0.0.110 > 10.0.0.10) ns3::UdpHeader (length: 520 49154 > 9) Payload (size=512)
r 2.12604 /NodeList/15/DeviceList/4/$ns3::PointToPointNetDevice/MacRx ns3::PppHeader (Point-to-Point Protocol: IP (0x0021)) ns3::Ipv4Header (tos 0x0 DSCP Default ECN Not-ECT ttl 64 id 0 protocol 17 offset (bytes) 0 flags [none] length: 540 10.0.0.237 > 10.0.0.126) ns3::UdpHeader (length: 520 49153 > 9) Payload (size=512)
r 2.12608 /NodeList/3/DeviceList/2/$ns3::PointToPointNetDevice/MacRx ns3::PppHeader (Point-to-Point Protocol: IP (0x0021)) ns3::Ipv4Header (tos 0x0 DSCP Default ECN Not-ECT ttl 64 id 0 protocol 17 offset (bytes) 0 flags [none] length: 540 10.0.0.37 > 10.0.0.62) ns3::UdpHeader (length: 520 49153 > 9) Payload (size=512)
+ 2.12608 /NodeList/3/DeviceList/6/$ns3::PointToPointNetDevice/TxQueue/Enqueue ns3::PppHeader (Point-to-Point Protocol: IP (0x0021)) ns3::Ipv4Header (tos 0x0 DSCP Default ECN Not-ECT ttl 63 id 0 protocol 17 offset (bytes) 0 flags [none] length: 540 10.0.0.37 > 10.0.0.62) ns3::UdpHeader (length: 520 49153 > 9) Payload (size=512)
- 2.12608 /NodeList/3/DeviceList/6/$ns3::PointToPointNetDevice/TxQueue/Dequeue ns3::PppHeader (Point-to-Point Protocol: IP (0x0021)) ns3::Ipv4Header (tos 0x0 DSCP Default ECN Not-ECT ttl 63 id 0 protocol 17 offset (bytes) 0 flags [none] length: 540 10.0.0.37 > 10.0.0.62) ns3::UdpHeader (length: 520 49153 > 9) Payload (size=512)
r 2.12718 /NodeList/7/DeviceList/7/$ns3::PointToPointNetDevice/MacRx ns3::PppHeader (Point-to-Point Protocol: IP (0x0021)) ns3::Ipv4Header (tos 0x0 DSCP Default ECN Not-ECT ttl 64 id 0 protocol 17 offset (bytes) 0 flags [none] length: 540 10.0.0.126 > 10.0.0.2) ns3::UdpHeader (length: 520 49153 > 9) Payload (size=512)
+ 2.12718 /NodeList/7/DeviceList/1/$ns3::PointToPointNetDevice/TxQueue/Enqueue ns3::PppHeader (Point-to-Point Protocol: IP (0x0021)) ns3::Ipv4Header (tos 0x0 DSCP Default ECN Not-ECT ttl 63 id 0 protocol 17 offset (bytes) 0 flags [none] length: 540 10.0.0.126 > 10.0.0.2) ns3::UdpHeader (length: 520 49153 > 9) Payload (size=512)
- 2.12718 /NodeList/7/DeviceList/1/$ns3::PointToPointNetDevice/TxQueue/Dequeue ns3::PppHeader (Point-to-Point Protocol: IP (0x0021)) ns3::Ipv4Header (tos 0x0 DSCP Default ECN Not-ECT ttl 63 id 0 protocol 17 offset (bytes) 0 flags [none] length: 540 10.0.0.126 > 10.0.0.2) ns3::UdpHeader (length: 520 49153 > 9) Payload (size=512)
r 2.12847 /NodeList/6/DeviceList/6/$ns3::PointToPointNetDevice/MacRx ns3::PppHeader (Point-to-Point Protocol: IP (0x0021)) ns3::Ipv4Header (tos 0x0 DSCP Default ECN Not-ECT ttl 64 id 0 protocol 17 offset (bytes) 0 flags [none] length: 540 10.0.0.110 > 10.0.0.10) ns3::UdpHeader (length: 520 49154 > 9) Payload (size=512)
+ 2.12847 /NodeList/6/DeviceList/2/$ns3::PointToPointNetDevice/TxQueue/Enqueue ns3::PppHeader (Point-to-Point Protocol: IP (0x0021)) ns3::Ipv4Header (tos 0x0 DSCP Default ECN Not-ECT ttl 63 id 0 protocol 17 offset (bytes) 0 flags [none] length: 540 10.0.0.110 > 10.0.0.10) ns3::UdpHeader (length: 520 49154 > 9) Payload (size=512)
- 2.12847 /NodeList/6/DeviceList/2/$ns3::PointToPointNetDevice/TxQueue/Dequeue ns3::PppHeader (Point-to-Point Protocol: IP (0x0021)) ns3::Ipv4Header (tos 0x0 DSCP Default ECN Not-ECT ttl 63 id 0 protocol 17 offset (bytes) 0 flags [none] length: 540 10.0.0.110 > 10.0.0.10) ns3::UdpHeader (length: 520 49154 > 9) Payload (size=512)
r 2.12851 /NodeList/11/DeviceList/1/$ns3::PointToPointNetDevice/MacRx ns3::PppHeader (Point-to-Point Protocol: IP (0x0021)) ns3::Ipv4Header (tos 0x0 DSCP Default ECN Not-ECT ttl 63 id 0 protocol 17 offset (bytes) 0 flags [none] length: 540 10.0.0.37 > 10.0.0.62) ns3::UdpHeader (length: 520 49153 > 9) Payload (size=512)
r 2.12961 /NodeList/3/DeviceList/5/$ns3::PointToPointNetDevice/MacRx ns3::PppHeader (Point-to-Point Protocol: IP (0x0021)) ns3::Ipv4Header (tos 0x0 DSCP Default ECN Not-ECT ttl 63 id 0 protocol 17 offset (bytes) 0 flags [none] length: 540 10.0.0.126 > 10.0.0.2) ns3::UdpHeader (length: 520 49153 > 9) Payload (size=512)
+ 2.12961 /NodeList/3/DeviceList/1/$ns3::PointToPointNetDevice/TxQueue/Enqueue ns3::PppHeader (Point-to-Point Protocol: IP (0x0021)) ns3::Ipv4Header (tos 0x0 DSCP Default ECN Not-ECT ttl 62 id 0 protocol 17 offset (bytes) 0 flags [none] length: 540 10.0.0.126 > 10.0.0.2) ns3::UdpHeader (length: 520 49153 > 9) Payload (size=512)
- 2.12961 /NodeList/3/DeviceList/1/$ns3::PointToPointNetDevice/TxQueue/Dequeue ns3::PppHeader (Point-to-Point Protocol: IP (0x0021)) ns3::Ipv4Header (tos 0x0 DSCP Default ECN Not-ECT ttl 62 id 0 protocol 17 offset (bytes) 0 flags [none] length: 540 10.0.0.126 > 10.0.0.2) ns3::UdpHeader (length: 520 49153 > 9) Payload (size=512)
r 2.1309 /NodeList/4/DeviceList/4/$ns3::PointToPointNetDevice/MacRx ns3::PppHeader (Point-to-Point Protocol: IP (0x0021)) ns3::Ipv4Header (tos 0x0 DSCP Default ECN Not-ECT ttl 63 id 0 protocol 17 offset (bytes) 0 flags [none] length: 540 10.0.0.110 > 10.0.0.10) ns3::UdpHeader (length: 520 49154 > 9) Payload (size=512)
r 2.13204 /NodeList/1/DeviceList/3/$ns3::PointToPointNetDevice/MacRx ns3::PppHeader (Point-to-Point Protocol: IP (0x0021)) ns3::Ipv4Header (tos 0x0 DSCP Default ECN Not-ECT ttl 62 id 0 protocol 17 offset (bytes) 0 flags [none] length: 540 10.0.0.126 > 10.0.0.2) ns3::UdpHeader (length: 520 49153 > 9) Payload (size=512)
+ 2.13913 /NodeList/15/DeviceList/2/$ns3::PointToPointNetDevice/TxQueue/Enqueue ns3::PppHeader (Point-to-Point Protocol: IP (0x0021)) ns3::Ipv4Header (tos 0x0 DSCP Default ECN Not-ECT ttl 64 id 0 protocol 17 offset (bytes) 0 flags [none] length: 540 10.0.0.190 > 10.0.0.62) ns3::UdpHeader (length: 520 49154 > 9) Payload (size=512)
- 2.13913 /NodeList/15/DeviceList/2/$ns3::PointToPointNetDevice/TxQueue/Dequeue ns3::PppHeader (Point-to-Point Protocol: IP (0x0021)) ns3::Ipv4Header (tos 0x0 DSCP Default ECN Not-ECT ttl 64 id 0 protocol 17 offset (bytes) 0 flags [none] length: 540 10.0.0.190 > 10.0.0.62) ns3::UdpHeader (length: 520 49154 > 9) Payload (size=512)
+ 2.1414 /NodeList/4/DeviceList/1/$ns3::PointToPointNetDevice/TxQueue/Enqueue ns3::PppHeader (Point-to-Point Protocol: IP (0x0021)) ns3::Ipv4Header (tos 0x0 DSCP Default ECN Not-ECT ttl 64 id 0 protocol 17 offset (bytes) 0 flags [none] length: 540 10.0.0.10 > 10.0.0.22) ns3::UdpHeader (length: 520 49154 > 9) Payload (size=512)
- 2.1414 /NodeList/4/DeviceList/1/$ns3::PointToPointNetDevice/TxQueue/Dequeue ns3::PppHeader (Point-to-Point Protocol: IP (0x0021)) ns3::Ipv4Header (tos 0x0 DSCP Default ECN Not-ECT ttl 64 id 0 protocol 17 offset (bytes) 0 flags [none] length: 540 10.0.0.10 > 10.0.0.22) ns3::UdpHeader (length: 520 49154 > 9) Payload (size=512)
r 2.14157 /NodeList/11/DeviceList/7/$ns3::PointToPointNetDevice/MacRx ns3::PppHeader (Point-to-Point Protocol: IP (0x0021)) ns3::Ipv4Header (tos 0x0 DSCP Default ECN Not-ECT ttl 64 id 0 protocol 17 offset (bytes) 0 flags [none] length: 540 10.0.0.190 > 10.0.0.62) ns3::UdpHeader (length: 520 49154 > 9) Payload (size=512)
+ 2.14173 /NodeList/3/DeviceList/1/$ns3::PointToPointNetDevice/TxQueue/Enqueue ns3::PppHeader (Point-to-Point Protocol: IP (0x0021)) ns3::Ipv4Header (tos 0x0 DSCP Default ECN Not-ECT ttl 64 id 0 protocol 17 offset (bytes) 0 flags [none] length: 540 10.0.0.22 > 10.0.0.78) ns3::UdpHeader (length: 520 49153 > 9) Payload (size=512)
- 2.14173 /NodeList/3/DeviceList/1/$ns3::PointToPointNetDevice/TxQueue/Dequeue ns3::PppHeader (Point-to-Point Protocol: IP (0x0021)) ns3::Ipv4Header (tos 0x0 DSCP Default ECN Not-ECT ttl 64 id 0 protocol 17 offset (bytes) 0 flags [none] length: 540 10.0.0.22 > 10.0.0.78) ns3::UdpHeader (length: 520 49153 > 9) Payload (size=512)
+ 2.1427 /NodeList/12/DeviceList/1/$ns3::PointToPointNetDevice/TxQueue/Enqueue ns3::PppHeader (Point-to-Point Protocol: IP (0x0021)) ns3::Ipv4Header (tos 0x0 DSCP Default ECN Not-ECT ttl 64 id 0 protocol 17 offset (bytes) 0 flags [none] length: 540 10.0.0.78 > 10.0.0.6) ns3::UdpHeader (length: 520 49154 > 9) Payload (size=512)
- 2.1427 /NodeList/12/DeviceList/1/$ns3::PointToPointNetDevice/TxQueue/Dequeue ns3::PppHeader (Point-to-Point Protocol: IP (0x0021)) ns3::Ipv4Header (tos 0x0 DSCP Default ECN Not-ECT ttl 64 id 0 protocol 17 offset (bytes) 0 flags [none] length: 540 10.0.0.78 > 10.0.0.6) ns3::UdpHeader (length: 520 49154 > 9) Payload (size=512)
r 2.14384 /NodeList/0/DeviceList/3/$ns3::PointToPointNetDevice/MacRx ns3::PppHeader (Point-to-Point Protocol: IP (0x0021)) ns3::Ipv4Header (tos 0x0 DSCP Default ECN Not-ECT ttl 64 id 0 protocol 17 offset (bytes) 0 flags [none] length: 540 10.0.0.10 > 10.0.0.22) ns3::UdpHeader (length: 520 49154 > 9) Payload (size=512)
+ 2.14384 /NodeList/0/DeviceList/1/$ns3::PointToPointNetDevice/TxQueue/Enqueue ns3::PppHeader (Point-to-Point Protocol: IP (0x0021)) ns3::Ipv4Header (tos 0x0 DSCP Default ECN Not-ECT ttl 63 id 0 protocol 17 offset (bytes) 0 flags [none] length: 540 10.0.0.10 > 10.0.0.22) ns3::UdpHeader (length: 520 49154 > 9) Payload (size=512)
- 2.14384 /NodeList/0/DeviceList/1/$ns3::PointToPointNetDevice/TxQueue/Dequeue ns3::PppHeader (Point-to-Point Protocol: IP (0x0021)) ns3::Ipv4Header (tos 0x0 DSCP Default ECN Not-ECT ttl 63 id 0 protocol 17 offset (bytes) 0 flags [none] length: 540 10.0.0.10 > 10.0.0.22) ns3::UdpHeader (length: 520 49154 > 9) Payload (size=512)
r 2.14416 /NodeList/1/DeviceList/3/$ns3::PointToPointNetDevice/MacRx ns3::PppHeader (Point-to-Point Protocol: IP (0x0021)) ns3::Ipv4Header (tos 0x0 DSCP Default ECN Not-ECT ttl 64 id 0 protocol 17 offset (bytes) 0 flags [none] length: 540 10.0.0.22 > 10.0.0.78) ns3::UdpHeader (length: 520 49153 > 9) Payload (size=512)
+ 2.14416 /NodeList/1/DeviceList/1/$ns3::PointToPointNetDevice/TxQueue/Enqueue ns3::PppHeader (Point-to-Point Protocol: IP (0x0021)) ns3::Ipv4Header (tos 0x0 DSCP Default ECN Not-ECT ttl 63 id 0 protocol 17 offset (bytes) 0 flags [none] length: 540 10.0.0.22 > 10.0.0.78) ns3::UdpHeader (length: 520 49153 > 9) Payload (size=512)
- 2.14416 /NodeList/1/DeviceList/1/$ns3::PointToPointNetDevice/TxQueue/Dequeue ns3::PppHeader (Point-to-Point Protocol: IP (0x0021)) ns3::Ipv4Header (tos 0x0 DSCP Default ECN Not-ECT ttl 63 id 0 protocol 17 offset (bytes) 0 flags [none] length: 540 10.0.0.22 > 10.0.0.78) ns3::UdpHeader (length: 520 49153 > 9) Payload (size=512)
r 2.14513 /NodeList/4/DeviceList/5/$ns3::PointToPointNetDevice/MacRx ns3::PppHeader (Point-to-Point Protocol: IP (0x0021)) ns3::Ipv4Header (tos 0x0 DSCP Default ECN Not-ECT ttl 64 id 0 protocol 17 offset (bytes) 0 flags [none] length: 540 10.0.0.78 > 10.0.0.6) ns3::UdpHeader (length: 520 49154 > 9) Payload (size=512)
+ 2.14513 /NodeList/4/DeviceList/1/$ns3::PointToPointNetDevice/TxQueue/Enqueue ns3::PppHeader (Point-to-Point Protocol: IP (0x0021)) ns3::Ipv4Header (tos 0x0 DSCP Default ECN Not-ECT ttl 63 id 0 protocol 17 offset (bytes) 0 flags [none] length: 540 10.0.0.78 > 10.0.0.6) ns3::UdpHeader (length: 520 49154 > 9) Payload (size=512)
- 2.14513 /NodeList/4/DeviceList/1/$ns3::PointToPointNetDevice/TxQueue/Dequeue ns3::PppHeader (Point-to-Point Protocol: IP (0x0021)) ns3::Ipv4Header (tos 0x0 DSCP Default ECN Not-ECT ttl 63 id 0 protocol 17 offset (bytes) 0 flags [none] length: 540 10.0.0.78 > 10.0.0.6) ns3::UdpHeader (length: 520 49154 > 9) Payload (size=512)
r 2.14627 /NodeList/1/DeviceList/1/$ns3::PointToPointNetDevice/MacRx ns3::PppHeader (Point-to-Point Protocol: IP (0x0021)) ns3::Ipv4Header (tos 0x0 DSCP Default ECN Not-ECT ttl 63 id 0 protocol 17 offset (bytes) 0 flags [none] length: 540 10.0.0.10 > 10.0.0.22) ns3::UdpHeader (length: 520 49154 > 9) Payload (size=512)